 Q-Chem 5.1, Q-Chem, Inc., Pleasanton, CA (2018)
 Q-Chem 5.1.0 for Intel X86 EM64T Linux

User input:
--------------------------------------------------------------
$molecule
0 2
C  -5.2133624653  -0.5817323293   0.0716063550
C  -3.9208577163  -0.3653642231   0.7842756215
C  -2.7234657196  -0.4847274371  -0.1586226776
C  -1.4067286916  -0.2489011556   0.5841707145
C  -0.2072350441  -0.3685719473  -0.3574558461
C   1.1089292685  -0.1327105750   0.3853541574
C   2.3084161422  -0.2523719000  -0.5561809572
C   3.6235534716  -0.0166689057   0.1861615221
C   4.8185306791  -0.1347534507  -0.7463583025
H  -6.1212127696  -0.1314315941   0.4570007066
H  -5.2994424748  -1.3353553028  -0.7031522856
H  -3.8376470521  -1.0990705009   1.5937074359
H  -3.9334312212   0.6298167193   1.2431088845
H  -2.8197233396   0.2430488059  -0.9743845075
H  -2.7102695500  -1.4811213976  -0.6184248843
H  -1.3087993596  -0.9774524008   1.3981987606
H  -1.4164794042   0.7479540847   1.0415516576
H  -0.3052165202   0.3598808520  -1.1715477467
H  -0.1973201203  -1.3653983624  -0.8148705061
H   1.2068964692  -0.8611582319   1.1994628356
H   1.0990300919   0.8641225318   0.8427731222
H   2.2105374373   0.4759364652  -1.3704644617
H   2.3183955049  -1.2491385967  -1.0138136628
H   3.7283249744  -0.7449267208   0.9987919751
H   3.6204650036   0.9802248979   0.6421197372
H   4.7607639358   0.6026064156  -1.5533896657
H   5.7481271068   0.0373839809  -0.1948776860
H   4.8692213632  -1.1321100114  -1.1947402959
$end

$rem
JOBTYPE                   OPT
METHOD                    wB97X-D3
DFT_D                     D3_BJ
BASIS                     def2-TZVP
UNRESTRICTED              TRUE
SCF_ALGORITHM             DIIS
MAX_SCF_CYCLES            150
SCF_CONVERGENCE           8
SYM_IGNORE                TRUE
SYMMETRY                  FALSE
GEOM_OPT_MAX_CYCLES       150
GEOM_OPT_TOL_GRADIENT     100
GEOM_OPT_TOL_DISPLACEMENT 400
GEOM_OPT_TOL_ENERGY       33
XC_GRID			  2
$end

--------------------------------------------------------------

   13    -354.4313231936      3.73e-09  Convergence criterion met
 Total energy in the final basis set =     -354.4313231936
   10    -354.4330435208      7.62e-09  Convergence criterion met
 Total energy in the final basis set =     -354.4330435208
    9    -354.4331942461      8.80e-09  Convergence criterion met
 Total energy in the final basis set =     -354.4331942461
    9    -354.4332135781      3.94e-09  Convergence criterion met
 Total energy in the final basis set =     -354.4332135781
    8    -354.4332246044      8.22e-09  Convergence criterion met
 Total energy in the final basis set =     -354.4332246044
   10    -354.4332526883      4.53e-09  Convergence criterion met
 Total energy in the final basis set =     -354.4332526883
    9    -354.4332639567      7.29e-09  Convergence criterion met
 Total energy in the final basis set =     -354.4332639567
    8    -354.4332686715      6.12e-09  Convergence criterion met
 Total energy in the final basis set =     -354.4332686715
    8    -354.4332701862      6.05e-09  Convergence criterion met
 Total energy in the final basis set =     -354.4332701862
    8    -354.4332705662      3.05e-09  Convergence criterion met
 Total energy in the final basis set =     -354.4332705662
    8    -354.4332707460      3.16e-09  Convergence criterion met
 Total energy in the final basis set =     -354.4332707460
 Final energy is   -354.433270745971
 **  OPTIMIZATION CONVERGED  **
 Total job time:  1411.25s(wall), 21482.72s(cpu)
        *  Thank you very much for using Q-Chem.  Have a nice day.  *
 Q-Chem 5.1, Q-Chem, Inc., Pleasanton, CA (2018)
 Q-Chem 5.1.0 for Intel X86 EM64T Linux

User input:
--------------------------------------------------------------

$molecule
read
$end

$rem
JOBTYPE                   FREQ
METHOD                    wB97X-D3
DFT_D                     D3_BJ
BASIS                     def2-TZVP
UNRESTRICTED              TRUE
SCF_ALGORITHM             DIIS
MAX_SCF_CYCLES            150
SCF_CONVERGENCE           8
SYM_IGNORE                TRUE
SYMMETRY                  FALSE
GEOM_OPT_MAX_CYCLES       150
GEOM_OPT_TOL_GRADIENT     100
GEOM_OPT_TOL_DISPLACEMENT 400
GEOM_OPT_TOL_ENERGY       33
XC_GRID			  2
$end
--------------------------------------------------------------

             Standard Nuclear Orientation (Angstroms)
    I     Atom           X                Y                Z
 ----------------------------------------------------------------
    1      C      -5.2255975471    -0.6152944572     0.0823332047
    2      C      -3.9397609274    -0.3547811711     0.7680709901
    3      C      -2.7290634244    -0.4771215566    -0.1448480053
    4      C      -1.4149361655    -0.2420132025     0.5763158350
    5      C      -0.2072851233    -0.3600814920    -0.3354214325
    6      C       1.1104130637    -0.1285484317     0.3814032800
    7      C       2.3152205570    -0.2488556626    -0.5337059514
    8      C       3.6367649570    -0.0188943431     0.1779725408
    9      C       4.8296782356    -0.1476521848    -0.7529436519
   10      H      -6.1658113886    -0.3170491357     0.5247841215
   11      H      -5.2511490563    -1.1964327976    -0.8302695750
   12      H      -3.8130860690    -1.0528610264     1.6102852242
   13      H      -3.9537697385     0.6397193133     1.2284139750
   14      H      -2.8270252202     0.2352363628    -0.9690165677
   15      H      -2.7222992903    -1.4732410509    -0.5984899654
   16      H      -1.3187471947    -0.9576036048     1.3994129493
   17      H      -1.4263297876     0.7519301783     1.0354842645
   18      H      -0.3045196902     0.3569026164    -1.1570177767
   19      H      -0.1988117708    -1.3528786116    -0.7970759335
   20      H       1.2072880458    -0.8451897335     1.2034439212
   21      H       1.1023284265     0.8648079219     0.8418482381
   22      H       2.2170119053     0.4675360788    -1.3559918152
   23      H       2.3213234185    -1.2421182046    -0.9948753771
   24      H       3.7302087749    -0.7340150359     1.0003086059
   25      H       3.6286971045     0.9746872058     0.6352568462
   26      H       4.7636179864     0.5767482399    -1.5671255800
   27      H       5.7711818024     0.0183681523    -0.2285592196
   28      H       4.8644581166    -1.1432946568    -1.1999931449
 ----------------------------------------------------------------

   13    -354.4332707464      3.53e-09  Convergence criterion met
 Total energy in the final basis set =     -354.4332707464

                    Orbital Energies (a.u.)
 --------------------------------------------------------------

 Alpha MOs
 -- Occupied --
-10.275 -10.272 -10.265 -10.264 -10.264 -10.263 -10.263 -10.262
-10.258  -0.936  -0.917  -0.883  -0.837  -0.782  -0.727  -0.691
 -0.686  -0.681  -0.593  -0.572  -0.548  -0.538  -0.533  -0.509
 -0.507  -0.495  -0.472  -0.456  -0.452  -0.439  -0.426  -0.425
 -0.416  -0.413  -0.411  -0.391  -0.291

 Beta MOs
 -- Occupied --
-10.273 -10.265 -10.265 -10.264 -10.264 -10.263 -10.263 -10.262
-10.258  -0.935  -0.914  -0.878  -0.830  -0.774  -0.718  -0.688
 -0.683  -0.673  -0.592  -0.570  -0.543  -0.536  -0.530  -0.506
 -0.504  -0.491  -0.469  -0.452  -0.448  -0.437  -0.425  -0.424
 -0.416  -0.412  -0.411  -0.390

          Ground-State Mulliken Net Atomic Charges

     Atom                 Charge (a.u.)    Spin (a.u.)
  --------------------------------------------------------
      1 C                    -0.344493       1.034394
      2 C                    -0.112257      -0.089676
      3 C                    -0.217173       0.021787
      4 C                    -0.190364       0.000169
      5 C                    -0.190743      -0.000294
      6 C                    -0.184809      -0.000060
      7 C                    -0.203303      -0.000021
      8 C                    -0.151520      -0.000003
      9 C                    -0.341213       0.000002
     10 H                     0.138042      -0.028396
     11 H                     0.136069      -0.028554
     12 H                     0.103322       0.061198
     13 H                     0.102078       0.028028
     14 H                     0.102141       0.001245
     15 H                     0.096087      -0.000690
     16 H                     0.092906       0.000386
     17 H                     0.093199       0.000181
     18 H                     0.094498       0.000165
     19 H                     0.094023       0.000087
     20 H                     0.092755       0.000054
     21 H                     0.092841      -0.000002
     22 H                     0.091455      -0.000000
     23 H                     0.091256      -0.000001
     24 H                     0.090216      -0.000000
     25 H                     0.090396       0.000001
     26 H                     0.107701      -0.000000
     27 H                     0.119221       0.000000
     28 H                     0.107670      -0.000000
  --------------------------------------------------------
  Sum of atomic charges =     0.000000

                    Cartesian Multipole Moments
 -----------------------------------------------------------------
    Charge (ESU x 10^10)
                 0.0000
    Dipole Moment (Debye)
         X       0.2750      Y       0.0054      Z       0.2160
       Tot       0.3498
    Quadrupole Moments (Debye-Ang)
        XX     -64.5471     XY      -0.2858     YY     -60.3700
        XZ      -0.4599     YZ       0.1409     ZZ     -61.7331

 Frequency:        28.32                  55.13                  70.41
 Force Cnst:      0.0012                 0.0048                 0.0062
 Red. Mass:       2.5227                 2.6567                 2.1156
 IR Intens:        0.002                  0.041                  0.031
 Frequency:        79.34                  99.43                 120.89
 Force Cnst:      0.0042                 0.0128                 0.0149
 Red. Mass:       1.1199                 2.1888                 1.7271
 IR Intens:        0.040                  0.011                  0.049
 Frequency:       152.91                 160.13                 166.18
 Force Cnst:      0.0289                 0.0451                 0.0315
 Red. Mass:       2.0997                 2.9820                 1.9353
 IR Intens:        0.006                  0.041                  0.011
 Frequency:       240.39                 249.08                 292.07
 Force Cnst:      0.0390                 0.1410                 0.1438
 Red. Mass:       1.1467                 3.8567                 2.8616
 IR Intens:        0.001                  0.054                  0.214
 Frequency:       400.93                 457.49                 465.32
 Force Cnst:      0.2328                 0.1784                 0.3480
 Red. Mass:       2.4586                 1.4467                 2.7276
 IR Intens:        3.272                 43.250                  5.951
 Frequency:       506.52                 727.70                 732.74
 Force Cnst:      0.3943                 0.3401                 0.3363
 Red. Mass:       2.6082                 1.0902                 1.0632
 IR Intens:        2.505                  1.346                  4.351
 Frequency:       745.48                 785.77                 855.95
 Force Cnst:      0.3661                 0.4292                 0.5412
 Red. Mass:       1.1180                 1.1799                 1.2538
 IR Intens:        0.192                  0.932                  0.392
 Frequency:       904.77                 916.35                 950.45
 Force Cnst:      0.7082                 0.8660                 0.7008
 Red. Mass:       1.4683                 1.7505                 1.3168
 IR Intens:        0.316                  1.814                  0.410
 Frequency:      1024.74                1039.20                1049.96
 Force Cnst:      0.7964                 2.3318                 1.5988
 Red. Mass:       1.2873                 3.6648                 2.4615
 IR Intens:        0.110                  0.044                  0.184
 Frequency:      1079.80                1091.46                1103.46
 Force Cnst:      1.8943                 1.0152                 1.4847
 Red. Mass:       2.7575                 1.4464                 2.0695
 IR Intens:        0.287                  1.190                  0.390
 Frequency:      1105.03                1115.00                1133.42
 Force Cnst:      1.2946                 1.4467                 1.3381
 Red. Mass:       1.7994                 1.9751                 1.7679
 IR Intens:        0.045                  1.071                  2.169
 Frequency:      1177.15                1221.54                1245.70
 Force Cnst:      2.4702                 1.5577                 1.2205
 Red. Mass:       3.0256                 1.7718                 1.3350
 IR Intens:        0.183                  0.027                  0.259
 Frequency:      1257.78                1289.75                1296.27
 Force Cnst:      1.3277                 1.2957                 1.2570
 Red. Mass:       1.4244                 1.3220                 1.2697
 IR Intens:        0.107                  0.154                  0.045
 Frequency:      1324.47                1331.06                1335.32
 Force Cnst:      1.2152                 1.0808                 1.4330
 Red. Mass:       1.1757                 1.0354                 1.3640
 IR Intens:        0.431                  0.104                  0.529
 Frequency:      1341.79                1345.39                1377.17
 Force Cnst:      1.1433                 1.1948                 1.6460
 Red. Mass:       1.0778                 1.1204                 1.4730
 IR Intens:        0.284                  0.104                  0.211
 Frequency:      1408.71                1417.88                1429.33
 Force Cnst:      1.7265                 1.6835                 2.1826
 Red. Mass:       1.4767                 1.4213                 1.8132
 IR Intens:        0.941                  3.221                  0.630
 Frequency:      1435.20                1470.77                1475.94
 Force Cnst:      2.3504                 1.3776                 1.5615
 Red. Mass:       1.9367                 1.0809                 1.2166
 IR Intens:        0.011                  3.597                  0.698
 Frequency:      1492.12                1493.23                1495.44
 Force Cnst:      1.4147                 1.4169                 1.4058
 Red. Mass:       1.0785                 1.0785                 1.0669
 IR Intens:        0.139                  0.309                  0.575
 Frequency:      1498.62                1500.30                1507.69
 Force Cnst:      1.3975                 1.4159                 1.4670
 Red. Mass:       1.0562                 1.0677                 1.0954
 IR Intens:        6.005                  3.020                  1.711
 Frequency:      1515.25                1520.40                2976.13
 Force Cnst:      1.4869                 1.4959                 5.5896
 Red. Mass:       1.0992                 1.0984                 1.0711
 IR Intens:        0.406                 16.237                 24.655
 Frequency:      3037.66                3038.85                3040.89
 Force Cnst:      5.7582                 5.7658                 5.7748
 Red. Mass:       1.0592                 1.0597                 1.0599
 IR Intens:        1.720                  0.419                  0.143
 Frequency:      3043.11                3047.41                3053.73
 Force Cnst:      5.9001                 5.8121                 5.8355
 Red. Mass:       1.0814                 1.0622                 1.0621
 IR Intens:        8.064                 13.030                 27.725
 Frequency:      3055.88                3060.76                3063.02
 Force Cnst:      5.8343                 5.7203                 6.0715
 Red. Mass:       1.0604                 1.0363                 1.0984
 IR Intens:      141.887                 45.960                  0.083
 Frequency:      3067.50                3077.25                3089.45
 Force Cnst:      6.0994                 6.1532                 6.2125
 Red. Mass:       1.1002                 1.1029                 1.1047
 IR Intens:        0.287                  0.196                  0.619
 Frequency:      3099.25                3106.16                3131.91
 Force Cnst:      6.2554                 6.2825                 6.3727
 Red. Mass:       1.1053                 1.1052                 1.1027
 IR Intens:        1.545                154.649                 60.211
 Frequency:      3141.76                3175.75                3279.55
 Force Cnst:      6.4087                 6.2465                 7.0894
 Red. Mass:       1.1020                 1.0512                 1.1187
 IR Intens:       38.205                 19.011                 12.535

 STANDARD THERMODYNAMIC QUANTITIES AT   298.15 K  AND     1.00 ATM

   This Molecule has  0 Imaginary Frequencies
   Zero point vibrational energy:      163.966 kcal/mol

   Atom    1 Element C  Has Mass   12.00000
   Atom    2 Element C  Has Mass   12.00000
   Atom    3 Element C  Has Mass   12.00000
   Atom    4 Element C  Has Mass   12.00000
   Atom    5 Element C  Has Mass   12.00000
   Atom    6 Element C  Has Mass   12.00000
   Atom    7 Element C  Has Mass   12.00000
   Atom    8 Element C  Has Mass   12.00000
   Atom    9 Element C  Has Mass   12.00000
   Atom   10 Element H  Has Mass    1.00783
   Atom   11 Element H  Has Mass    1.00783
   Atom   12 Element H  Has Mass    1.00783
   Atom   13 Element H  Has Mass    1.00783
   Atom   14 Element H  Has Mass    1.00783
   Atom   15 Element H  Has Mass    1.00783
   Atom   16 Element H  Has Mass    1.00783
   Atom   17 Element H  Has Mass    1.00783
   Atom   18 Element H  Has Mass    1.00783
   Atom   19 Element H  Has Mass    1.00783
   Atom   20 Element H  Has Mass    1.00783
   Atom   21 Element H  Has Mass    1.00783
   Atom   22 Element H  Has Mass    1.00783
   Atom   23 Element H  Has Mass    1.00783
   Atom   24 Element H  Has Mass    1.00783
   Atom   25 Element H  Has Mass    1.00783
   Atom   26 Element H  Has Mass    1.00783
   Atom   27 Element H  Has Mass    1.00783
   Atom   28 Element H  Has Mass    1.00783
   Molecular Mass:   127.148770 amu
   Principal axes and moments of inertia in amu*Bohr^2:
                             1           2           3
    Eigenvalues --      185.14207  5014.74660  5110.16125
          X               0.99560     0.06902    -0.06341
          Y               0.04520     0.23902     0.96996
          Z              -0.08211     0.96856    -0.23484
   Rotational Symmetry Number is   1
   The Molecule is an Asymmetric Top
   Translational Enthalpy:        0.889 kcal/mol
   Rotational Enthalpy:           0.889 kcal/mol
   Vibrational Enthalpy:        170.299 kcal/mol
   gas constant (RT):             0.592 kcal/mol
   Translational Entropy:        40.434  cal/mol.K
   Rotational Entropy:           29.940  cal/mol.K
   Vibrational Entropy:          43.661  cal/mol.K

   Total Enthalpy:              172.669 kcal/mol
   Total Entropy:               114.035  cal/mol.K

 Total job time:  14938.19s(wall), 58327.52s(cpu)
        *  Thank you very much for using Q-Chem.  Have a nice day.  *
